# LAMMPS data file written by OVITO Basic 3.10.6

6 atoms
2 atom types

0.0 3.1620949933 xlo xhi
0.0 2.7384543965 ylo yhi
0.0 12.3230106467 zlo zhi
1.5810474966 0.0 0.0 xy xz yz

Masses

1 95.94  # Mo
2 32.065  # S

Atoms  # atomic

1 1 1.5810490777 0.9128172193 9.242257985
2 1 3.1620934122 1.8256371771 3.0807526617
3 2 1.5810490777 0.9128172193 1.5171011286
4 2 3.1620934122 1.8256371771 10.8058602261
5 2 1.5810490777 0.9128172193 4.6444041947
6 2 3.1620934122 1.8256371771 7.678655744
